data_MOF-LA2-1-ZUS

_symmetry_space_group_name_H-M    'P1'
_symmetry_Int_Tables_number       1
_symmetry_cell_setting            triclinic
_citation_journal_DOI             '10.1021/acscentsci.3c00018'

loop_
_symmetry_equiv_pos_as_xyz
  x,y,z

_cell_length_a                    12.030000
_cell_length_b                    17.396999
_cell_length_c                    17.705999
_cell_angle_alpha                 90.000000
_cell_angle_beta                  99.330002
_cell_angle_gamma                 90.000000

loop_
_atom_site_label
_atom_site_type_symbol
_atom_site_fract_x
_atom_site_fract_y
_atom_site_fract_z
_atom_site_charge
Al Al 0.761279 0.450395 0.563287 1.64
Al Al 0.238721 0.549605 0.436713 1.64
Al Al 0.238721 0.950395 0.936713 1.64
Al Al 0.761279 0.049605 0.063287 1.64
Al Al 0.000000 0.500000 0.500000 1.64
Al Al 0.000000 0.000000 0.000000 1.64
Al Al 0.500000 0.500000 0.500000 1.64
Al Al 0.500000 0.000000 0.000000 1.64
O2 O  0.870519 0.372090 0.597084 -0.57
O2 O  0.129481 0.627910 0.402916 -0.57
O2 O  0.129481 0.872090 0.902916 -0.57
O2 O  0.870519 0.127910 0.097084 -0.57
O2 O  0.320700 0.904747 0.863704 -0.57
O2 O  0.679300 0.095253 0.136296 -0.57
O2 O  0.679300 0.404747 0.636296 -0.57
O2 O  0.320700 0.595253 0.363704 -0.57
O1 O  0.842947 0.490801 0.487061 -0.98
O1 O  0.157053 0.509199 0.512939 -0.98
O1 O  0.157053 0.990801 0.012939 -0.98
O1 O  0.842947 0.009199 0.987061 -0.98
O2 O  0.160906 0.018554 0.862649 -0.57
O2 O  0.839094 0.981446 0.137351 -0.57
O2 O  0.839094 0.518554 0.637351 -0.57
O2 O  0.160906 0.481446 0.362649 -0.57
O1 O  0.648597 0.521667 0.537870 -0.98
O1 O  0.351403 0.478333 0.462131 -0.98
O1 O  0.351403 0.021667 0.962130 -0.98
O1 O  0.648597 0.978333 0.037869 -0.98
O2 O  0.021768 0.396124 0.538941 -0.57
O2 O  0.978232 0.603876 0.461059 -0.57
O2 O  0.978232 0.896124 0.961059 -0.57
O2 O  0.021768 0.103876 0.038941 -0.57
O2 O  0.300751 0.623750 0.513604 -0.57
O2 O  0.699249 0.376250 0.486396 -0.57
O2 O  0.699249 0.123750 0.986396 -0.57
O2 O  0.300751 0.876250 0.013604 -0.57
O2 O  0.992004 0.039873 0.899780 -0.57
O2 O  0.007996 0.960127 0.100220 -0.57
O2 O  0.007996 0.539873 0.600220 -0.57
O2 O  0.992004 0.460127 0.399780 -0.57
O2 O  0.460723 0.569174 0.575983 -0.57
O2 O  0.539277 0.430826 0.424017 -0.57
O2 O  0.539277 0.069174 0.924017 -0.57
O2 O  0.460723 0.930826 0.075983 -0.57
O2 O  0.497961 0.917416 0.929712 -0.57
O2 O  0.502039 0.082584 0.070288 -0.57
O2 O  0.502039 0.417416 0.570288 -0.57
O2 O  0.497961 0.582584 0.429712 -0.57
H1 H  0.819795 0.462932 0.439639 0.43
H1 H  0.180205 0.537068 0.560361 0.43
H1 H  0.180205 0.962932 0.060361 0.43
H1 H  0.819795 0.037068 0.939639 0.43
H1 H  0.673254 0.573200 0.525436 0.43
H1 H  0.326746 0.426800 0.474564 0.43
H1 H  0.326746 0.073200 -0.025436   0.43
H1 H  0.673254 0.926800 0.025436 0.43
H2 H  0.666087 0.728364 0.799273 0.32
H2 H  0.333913 0.271636 0.200727 0.32
H2 H  0.333913 0.228364 0.700727 0.32
H2 H  0.666087 0.771636 0.299273 0.32
H2 H  0.181208 0.299972 0.575643 0.32
H2 H  0.818792 0.700028 0.424357 0.32
H2 H  0.818792 0.799972 0.924357 0.32
H2 H  0.181208 0.200028 0.075643 0.32
H3 H  0.914203 0.238416 0.693962 0.117
H3 H  0.085797 0.761584 0.306038 0.117
H3 H  0.085797 0.738416 0.806038 0.117
H3 H  0.914203 0.261584 0.193962 0.117
H3 H  0.324863 0.801398 0.736641 0.117
H3 H  0.675137 0.198602 0.263359 0.117
H3 H  0.675137 0.301398 0.763359 0.117
H3 H  0.324863 0.698602 0.236641 0.117
H4 H  0.048502 0.866713 0.209056 0
H4 H  0.951498 0.133287 0.790944 0
H4 H  0.951498 0.366713 0.290944 0
H4 H  0.048502 0.633287 0.709056 0
H4 H  0.806415 0.894310 0.239966 0
H4 H  0.193585 0.105690 0.760034 0
H4 H  0.193585 0.394310 0.260034 0
H4 H  0.806415 0.605690 0.739966 0
H4 H  0.551886 0.853066 0.181230 0
H4 H  0.448114 0.146934 0.818770 0
H4 H  0.448114 0.353066 0.318770 0
H4 H  0.551886 0.646934 0.681230 0
H4 H  0.320437 0.779791 0.122144 0
H4 H  0.679563 0.220209 0.877856 0
H4 H  0.679563 0.279791 0.377856 0
H4 H  0.320437 0.720209 0.622144 0
N1 N  0.588495 0.755805 0.793080 -0.302
N1 N  0.411505 0.244195 0.206920 -0.302
N1 N  0.411505 0.255805 0.706920 -0.302
N1 N  0.588495 0.744195 0.293080 -0.302
N2 N  0.576626 0.810039 0.844165 -0.324
N2 N  0.423374 0.189961 0.155835 -0.324
N2 N  0.423374 0.310039 0.655835 -0.324
N2 N  0.576626 0.689961 0.344165 -0.324
N2 N  0.174748 0.214363 0.657309 -0.324
N2 N  0.825252 0.785637 0.342691 -0.324
N2 N  0.825252 0.714363 0.842691 -0.324
N2 N  0.174748 0.285637 0.157309 -0.324
N1 N  0.132695 0.271798 0.611794 -0.302
N1 N  0.867305 0.728202 0.388206 -0.302
N1 N  0.867305 0.771798 0.888206 -0.302
N1 N  0.132695 0.228202 0.111794 -0.302
C5 C  0.994385 0.239477 0.673663 -0.17
C5 C  0.005615 0.760523 0.326337 -0.17
C5 C  0.005615 0.739477 0.826337 -0.17
C5 C  0.994385 0.260523 0.173663 -0.17
C2 C  0.967212 0.357388 0.581714 0.704
C2 C  0.032788 0.642612 0.418286 0.704
C2 C  0.032788 0.857388 0.918286 0.704
C2 C  0.967212 0.142612 0.081714 0.704
C2 C  0.384494 0.620162 0.568242 0.704
C2 C  0.615506 0.379838 0.431758 0.704
C2 C  0.615506 0.120162 0.931758 0.704
C2 C  0.384494 0.879838 0.068242 0.704
C2 C  0.065592 0.051427 0.856114 0.704
C2 C  0.934408 0.948574 0.143886 0.704
C2 C  0.934408 0.551426 0.643886 0.704
C2 C  0.065592 0.448573 0.356114 0.704
C2 C  0.425394 0.890363 0.876354 0.704
C2 C  0.574606 0.109637 0.123647 0.704
C2 C  0.574606 0.390363 0.623646 0.704
C2 C  0.425394 0.609637 0.376354 0.704
C5 C  0.412135 0.794540 0.762698 -0.17
C5 C  0.587865 0.205460 0.237302 -0.17
C5 C  0.587865 0.294540 0.737302 -0.17
C5 C  0.412135 0.705460 0.262698 -0.17
C4 C  0.090506 0.193061 0.695915 0.06
C4 C  0.909494 0.806939 0.304085 0.06
C4 C  0.909494 0.693061 0.804085 0.06
C4 C  0.090506 0.306939 0.195915 0.06
C3 C  0.025110 0.289822 0.619934 0.081
C3 C  0.974890 0.710178 0.380066 0.081
C3 C  0.974890 0.789822 0.880066 0.081
C3 C  0.025110 0.210178 0.119934 0.081
C4 C  0.468709 0.833922 0.826388 0.06
C4 C  0.531291 0.166078 0.173612 0.06
C4 C  0.531291 0.333922 0.673612 0.06
C4 C  0.468709 0.666078 0.326388 0.06
C3 C  0.491708 0.743737 0.741678 0.081
C3 C  0.508292 0.256263 0.258322 0.081
C3 C  0.508292 0.243737 0.758322 0.081
C3 C  0.491708 0.756263 0.241678 0.081
C6 C  0.889557 0.867353 0.248201 0
C6 C  0.110443 0.132647 0.751799 0
C6 C  0.110443 0.367353 0.251799 0
C6 C  0.889557 0.632647 0.748201 0
C6 C  0.964471 0.891476 0.204466 0
C6 C  0.035529 0.108524 0.795534 0
C6 C  0.035529 0.391476 0.295534 0
C6 C  0.964471 0.608524 0.704466 0
C6 C  0.482335 0.812746 0.181908 0
C6 C  0.517665 0.187254 0.818092 0
C6 C  0.517665 0.312746 0.318092 0
C6 C  0.482335 0.687254 0.681908 0
C6 C  0.391438 0.819358 0.126697 0
C6 C  0.608562 0.180642 0.873303 0
C6 C  0.608562 0.319358 0.373303 0
C6 C  0.391438 0.680642 0.626697 0
