data_MOF-303-E4D4
_audit_creation_date              2023-04-27
_audit_creation_method            'Materials Studio'
_symmetry_space_group_name_H-M    'P1'
_symmetry_Int_Tables_number       1
_symmetry_cell_setting            triclinic
_citation_journal_DOI             '10.1021/acs.jpcc.3c00354'
loop_
_symmetry_equiv_pos_as_xyz
  x,y,z
_cell_length_a                    12.2727
_cell_length_b                    15.4996
_cell_length_c                    13.4203
_cell_angle_alpha                 90.0000
_cell_angle_beta                  103.2620
_cell_angle_gamma                 90.0000
loop_
_atom_site_label
_atom_site_type_symbol
_atom_site_fract_x
_atom_site_fract_y
_atom_site_fract_z
_atom_site_charge
Al  Al  -0.000034  0.500040  0.500008  1.64
Al  Al  -0.000046  0.000004 -0.000030  1.64
Al  Al   0.499956  0.500013  0.499942  1.64
Al  Al   0.499928  0.000023 -0.000108  1.64
Al  Al   0.764659  0.437692  0.566429  1.64
Al  Al   0.235227  0.562337  0.433507  1.64
Al  Al   0.235221  0.937682  0.933417  1.64
Al  Al   0.764655  0.062306  0.066495  1.64
O2   O   0.120878  0.856134  0.876975  -0.57
O2   O   0.878996  0.143867  0.122996  -0.57
O2   O   0.879070  0.356087  0.622841  -0.57
O2   O   0.120795  0.643918  0.377125  -0.57
O2   O   0.303032  0.897451  0.828602  -0.57
O2   O   0.696952  0.102518  0.171418  -0.57
O2   O   0.697010  0.397449  0.671331  -0.57
O2   O   0.302883  0.602552  0.328620  -0.57
O2   O   0.830930  0.525933  0.664549  -0.57
O2   O   0.168984  0.474016  0.335482  -0.57
O2   O   0.168859  0.025914  0.835381  -0.57
O2   O   0.830939  0.974034  0.164518  -0.57
O2   O   0.310707  0.651571  0.523229  -0.57
O2   O   0.689187  0.348457  0.476665  -0.57
O2   O   0.689263  0.151604  0.976801  -0.57
O2   O   0.310633  0.848426  0.023189  -0.57
O2   O   0.959625  0.899184  0.918585  -0.57
O2   O   0.040249  0.100812  0.081398  -0.57
O2   O   0.040327  0.399117  0.581235  -0.57
O2   O   0.959555  0.600966  0.418834  -0.57
O2   O   0.991071  0.567378  0.619430  -0.57
O2   O   0.008830  0.432659  0.380607  -0.57
O2   O   0.008864  0.067512  0.880636  -0.57
O2   O   0.991001  0.932501  0.119308  -0.57
O2   O   0.494577  0.613321  0.552917  -0.57
O2   O   0.505304  0.386701  0.446946  -0.57
O2   O   0.505364  0.113373  0.947058  -0.57
O2   O   0.494505  0.886648  0.052749  -0.57
O2   O   0.480896  0.950227  0.864913  -0.57
O2   O   0.519075  0.049815  0.134904  -0.57
O2   O   0.519083  0.450130  0.634900  -0.57
O2   O   0.480797  0.549870  0.364932  -0.57
H1   H   0.805408  0.493686  0.409481  0.43
H1   H   0.194565  0.506397  0.590499  0.43
H1   H   0.194515  0.993312  0.090549  0.43
H1   H   0.805414  0.006607  0.909389  0.43
H1   H   0.675275  0.570673  0.490929  0.43
H1   H   0.324583  0.429394  0.509002  0.43
H1   H   0.324546  0.070527  0.009141  0.43
H1   H   0.675335  0.929438 -0.009191  0.43
H3   H   0.089142  0.709411  0.752543  0.117
H3   H   0.910657  0.290582  0.247339  0.117
H3   H   0.910789  0.209601  0.747441  0.117
H3   H   0.088981  0.790382  0.252465  0.117
H2   H   0.751658  0.656292  0.753279  0.32
H2   H   0.248209  0.343664  0.246751  0.32
H2   H   0.248112  0.156082  0.746381  0.32
H2   H   0.751694  0.843931  0.253521  0.32
H3   H   0.276877  0.790870  0.642065  0.117
H3   H   0.723029  0.209188  0.357792  0.117
H3   H   0.723113  0.290973  0.858019  0.117
H3   H   0.276774  0.709063  0.141873  0.117
H2   H   0.606407  0.825291  0.818355  0.32
H2   H   0.393498  0.174700  0.181556  0.32
H2   H   0.393686  0.325098  0.681335  0.32
H2   H   0.606162  0.674904  0.318572  0.32
C2   C   0.018485  0.847899  0.878429  0.704
C2   C   0.981388  0.152087  0.121565  0.704
C2   C   0.981468  0.347857  0.621401  0.704
C2   C   0.018401  0.652203  0.378591  0.704
C2   C   0.403015  0.900988  0.817773  0.704
C2   C   0.596936  0.099021  0.182143  0.704
C2   C   0.596995  0.400930  0.682092  0.704
C2   C   0.402872  0.599080  0.317796  0.704
C2   C   0.913439  0.575923  0.667067  0.704
C2   C   0.086446  0.424067  0.332950  0.704
C2   C   0.086421  0.075958  0.832895  0.704
C2   C   0.913413  0.924024  0.167012  0.704
C2   C   0.414126  0.660104  0.566752  0.704
C2   C   0.585762  0.339905  0.433162  0.704
C2   C   0.585849  0.160137  0.933242  0.704
C2   C   0.414061  0.839908  0.066659  0.704
C5   C   0.006042  0.710747  0.767253  -0.17
C5   C  -0.006205  0.289250  0.232697  -0.17
C5   C  -0.006109  0.210812  0.732696  -0.17
C5   C   0.005907  0.789196  0.267251  -0.17
C4   C   0.961836  0.771088  0.825594  0.06
C4   C   0.038034  0.228877  0.174433  0.06
C4   C   0.038114  0.271073  0.674288  0.06
C4   C   0.961723  0.728971  0.325715  0.06
C5   C   0.366631  0.787479  0.671214  -0.17
C5   C   0.633283  0.212556  0.328664  -0.17
C5   C   0.633386  0.287504  0.828747  -0.17
C5   C   0.366500  0.712578  0.171179  -0.17
C4   C   0.442570  0.730483  0.641583  0.06
C4   C   0.557338  0.269520  0.358316  0.06
C4   C   0.557476  0.230455  0.858313  0.06
C4   C   0.442455  0.769573  0.141571  0.06
C3   C   0.919488  0.652866  0.732595  0.081
C3   C   0.080347  0.347123  0.267403  0.081
C3   C   0.080351  0.152834  0.767266  0.081
C3   C   0.919446  0.847161  0.232640  0.081
C3   C   0.432441  0.837496  0.747338  0.081
C3   C   0.567479  0.162527  0.252554  0.081
C3   C   0.567601  0.337408  0.752490  0.081
C3   C   0.432262  0.662638  0.247399  0.081
N2   N   0.854406  0.752230  0.826401  -0.324
N2   N   0.145485  0.247705  0.173686  -0.324
N2   N   0.145466  0.252101  0.673349  -0.324
N2   N   0.854375  0.747962  0.326673  -0.324
N2   N   0.548807  0.743294  0.696951  -0.324
N2   N   0.451101  0.256694  0.302962  -0.324
N2   N   0.451273  0.243148  0.802795  -0.324
N2   N   0.548643  0.756862  0.197105  -0.324
N1   N   0.831200  0.680378  0.770602  -0.302
N1   N   0.168666  0.319582  0.229440  -0.302
N1   N   0.168612  0.180235  0.729125  -0.302
N1   N   0.831216  0.819805  0.270849  -0.302
N1   N   0.540037  0.809267  0.758427  -0.302
N1   N   0.459876  0.190727  0.241472  -0.302
N1   N   0.460044  0.309094  0.741285  -0.302
N1   N   0.539836  0.690928  0.258620  -0.302
O1   O   0.849038  0.471999  0.474059  -0.98
O1   O   0.150881  0.528057  0.525934  -0.98
O1   O   0.150830  0.971968  0.025828  -0.98
O1   O   0.849055  0.028020  0.974099  -0.98
O1   O   0.651915  0.514505  0.512627  -0.98
O1   O   0.348006  0.485555  0.487343  -0.98
O1   O   0.347966  0.014448  0.987267  -0.98
O1   O   0.651892  0.985547  0.012604  -0.98
   